Generated by baggianalysis

48785 atoms
49254 bonds
2 atom types
1 bond types

-42.749400 42.749400 xlo xhi
-42.749400 42.749400 ylo yhi
-42.749400 42.749400 zlo zhi

Masses

1 1
2 1

Atoms

1 1 2 36.851987 14.216355 2.350289 0 0 0
2 1 2 -40.349656 18.868772 27.720407 0 0 0
3 1 2 -10.662011 15.718469 16.076333 0 0 0
4 1 2 18.117501 -1.469306 -31.476643 0 0 0
5 1 2 -11.995507 24.919568 -12.825171 0 0 0
6 1 2 11.588983 -8.090617 -36.643754 0 0 0
7 1 2 -34.120368 1.105062 22.311902 0 0 0
8 1 2 41.518940 13.241399 30.289136 0 0 0
9 1 2 -24.323211 11.277726 -1.418261 0 0 0
10 1 2 -10.039340 27.929280 42.560667 0 0 0
11 1 2 -13.581679 1.285794 -36.794788 0 0 0
12 1 2 10.913583 30.411359 25.619428 0 0 0
13 1 2 -28.069463 -39.718548 15.614202 0 0 0
14 1 2 29.130232 13.427392 -36.439965 0 0 0
15 1 2 -24.903144 6.993375 -42.089501 0 0 0
16 1 2 37.628644 -41.628907 24.640393 0 0 0
17 1 2 -14.740949 -0.135733 -35.202248 0 0 0
18 1 2 -34.759428 -33.875090 27.313771 0 0 0
19 1 2 -6.150302 -34.194741 -36.402399 0 0 0
20 1 2 -11.854775 42.637189 41.365207 0 0 0
21 1 2 23.549482 -20.710900 21.600515 0 0 0
22 1 2 17.290187 -27.206563 33.584311 0 0 0
23 1 2 -24.568450 -2.746661 -4.169070 0 0 0
24 1 2 16.113095 28.713170 0.129247 0 0 0
25 1 2 20.805165 2.919938 15.560449 0 0 0
26 1 2 -6.304698 14.041764 -4.896205 0 0 0
27 1 2 -23.280351 20.299451 42.102643 0 0 0
28 1 2 -24.377101 36.576596 16.806615 0 0 0
29 1 2 -3.298919 27.929235 -11.999545 0 0 0
30 1 2 -37.648836 -23.535233 -5.227134 0 0 0
31 1 2 2.495015 -40.991051 0.318616 0 0 0
32 1 2 3.865029 -38.939881 -10.811944 0 0 0
33 1 2 16.171239 29.420758 -34.670601 0 0 0
34 1 2 9.217199 -19.564948 16.447187 0 0 0
35 1 2 -25.490769 26.902806 -13.809049 0 0 0
36 1 2 -23.597205 -29.928285 -29.923653 0 0 0
37 1 2 1.326085 -41.749520 16.671506 0 0 0
38 1 2 -12.717831 -41.307213 1.465306 0 0 0
39 1 2 -32.197301 -20.765290 -27.767285 0 0 0
40 1 2 -32.974455 -9.703662 24.715684 0 0 0
41 1 2 1.784578 -28.718202 -18.514356 0 0 0
42 1 2 -40.760333 32.704702 -27.056830 0 0 0
43 1 2 -32.932726 33.626157 28.421003 0 0 0
44 1 2 -18.469474 -29.025586 41.761731 0 0 0
45 1 2 -15.912892 0.953630 -18.905785 0 0 0
46 1 2 33.244107 -38.621949 17.621717 0 0 0
47 1 2 15.893193 -16.962748 -6.889138 0 0 0
48 1 2 38.243024 -29.490923 -1.816272 0 0 0
49 1 2 -4.927810 -0.440799 5.221765 0 0 0
50 1 2 -38.938271 -2.680217 -30.907983 0 0 0
51 1 2 29.041082 -39.329997 41.611959 0 0 0
52 1 2 -19.441554 36.910794 15.704225 0 0 0
53 1 2 -14.713649 -39.297745 18.438588 0 0 0
54 1 2 14.096620 -25.829196 -5.065059 0 0 0
55 1 2 -31.486840 27.252851 29.110860 0 0 0
56 1 2 36.990438 20.509665 36.737332 0 0 0
57 1 2 -39.810088 20.450223 9.798551 0 0 0
58 1 2 -9.493884 -26.427989 -12.364373 0 0 0
59 1 2 -16.110482 -17.500134 19.563489 0 0 0
60 1 2 -41.152737 0.865941 33.241452 0 0 0
61 1 2 24.455381 -11.495538 -25.528500 0 0 0
62 1 2 -33.701539 19.703508 -27.045419 0 0 0
63 1 2 18.078168 11.986989 15.961480 0 0 0
64 1 2 38.609154 16.465055 -18.066756 0 0 0
65 1 2 10.874551 -34.535333 0.612977 0 0 0
66 1 2 25.827247 -15.933823 -2.596587 0 0 0
67 1 2 24.604985 -36.346553 -30.368442 0 0 0
68 1 2 -35.239693 -5.793727 -10.865706 0 0 0
69 1 2 21.134175 42.270402 17.685247 0 0 0
70 1 2 -42.628649 14.531308 -20.691720 0 0 0
71 1 2 15.125589 42.472982 -23.132413 0 0 0
72 1 2 23.690358 -33.965583 -41.601125 0 0 0
73 1 2 -2.479293 27.400304 5.577478 0 0 0
74 1 2 20.841664 -14.079724 -21.018151 0 0 0
75 1 2 16.264299 -5.577445 33.465604 0 0 0
76 1 2 22.121175 -1.815429 -28.273909 0 0 0
77 1 2 33.482236 15.367746 -38.262524 0 0 0
78 1 2 34.650960 -38.448868 -21.488049 0 0 0
79 1 2 -8.636618 13.850377 -0.023379 0 0 0
80 1 2 12.487912 -39.487244 36.374646 0 0 0
81 1 2 10.927316 15.442727 3.866811 0 0 0
82 1 2 -14.279412 38.125180 39.783399 0 0 0
83 1 2 18.695810 17.560121 -38.857249 0 0 0
84 1 2 29.914128 27.093884 -18.088153 0 0 0
85 1 2 34.670262 -2.584433 25.389661 0 0 0
86 1 2 -18.806222 3.953511 -38.178826 0 0 0
87 1 2 17.963349 32.366025 32.597121 0 0 0
88 1 2 41.396108 -22.151698 24.228299 0 0 0
89 1 2 3.466149 -25.707970 22.559079 0 0 0
90 1 2 -25.135775 -14.626780 -26.808959 0 0 0
91 1 2 -3.801085 40.163915 -25.224795 0 0 0
92 1 2 36.428665 21.823484 -31.668531 0 0 0
93 1 2 20.216760 28.079328 -29.323199 0 0 0
94 1 2 -30.413218 14.398103 -18.375214 0 0 0
95 1 2 12.162907 22.599507 41.191654 0 0 0
96 1 2 24.181226 25.351339 36.029172 0 0 0
97 1 2 22.769208 -16.423821 6.291749 0 0 0
98 1 2 -31.829061 39.219541 -24.563264 0 0 0
99 1 2 6.526988 4.417001 13.270955 0 0 0
100 1 2 16.546685 23.322461 0.440246 0 0 0
101 1 2 3.281204 -9.236049 -16.972741 0 0 0
102 1 2 6.706704 14.231561 22.294149 0 0 0
103 1 2 -7.518596 -30.513077 -23.600089 0 0 0
104 1 2 21.504475 8.842263 -6.132838 0 0 0
105 1 2 -9.385848 31.982022 -12.537221 0 0 0
106 1 2 34.879483 -9.977534 2.629327 0 0 0
107 1 2 33.239499 -22.918206 28.496755 0 0 0
108 1 2 19.624852 -19.898127 -11.647830 0 0 0
109 1 2 7.362085 -18.470795 14.237382 0 0 0
110 1 2 2.295083 -25.801434 27.072559 0 0 0
111 1 2 -1.551307 -5.358271 15.869680 0 0 0
112 1 2 -14.648658 39.786577 31.910878 0 0 0
113 1 2 35.413251 12.928403 6.211595 0 0 0
114 1 2 -0.996211 7.978074 -32.262444 0 0 0
115 1 2 12.441583 35.306470 16.122834 0 0 0
116 1 2 -42.508547 16.363374 23.372542 0 0 0
117 1 2 23.751897 10.592050 29.199318 0 0 0
118 1 2 35.121228 -9.003714 -4.540103 0 0 0
119 1 2 41.809705 5.594998 -34.804584 0 0 0
120 1 2 -40.838578 -13.650218 -27.410308 0 0 0
121 1 2 17.263068 31.210721 34.398023 0 0 0
122 1 2 -4.603087 -14.777869 28.444097 0 0 0
123 1 2 -38.065017 -26.340226 -0.250342 0 0 0
124 1 2 4.276086 -18.810447 22.898038 0 0 0
125 1 2 -34.659830 20.510030 39.941590 0 0 0
126 1 2 -21.259202 37.226987 36.799499 0 0 0
127 1 2 42.148467 -28.328259 30.451879 0 0 0
128 1 2 17.268453 -0.836791 4.987905 0 0 0
129 1 2 -24.547232 42.087072 -21.887084 0 0 0
130 1 2 -29.142568 -36.988438 -19.124427 0 0 0
131 1 2 3.072183 -10.586409 -5.733176 0 0 0
132 1 2 -17.609832 33.069894 0.853665 0 0 0
133 1 2 41.774717 -40.099186 29.523695 0 0 0
134 1 2 -38.052943 3.757062 29.944493 0 0 0
135 1 2 -3.090476 21.977613 -2.357169 0 0 0
136 1 2 -3.463347 9.528237 -21.905845 0 0 0
137 1 2 -30.163432 25.724057 33.337368 0 0 0
138 1 2 4.211747 16.020856 6.849012 0 0 0
139 1 2 -42.249426 17.441545 -13.170575 0 0 0
140 1 2 28.000806 2.253213 -28.771207 0 0 0
141 1 2 -16.391187 4.692594 7.036367 0 0 0
142 1 2 -31.978356 39.723162 -0.230086 0 0 0
143 1 2 19.854188 -8.728234 39.106549 0 0 0
144 1 2 35.524701 15.348516 36.116834 0 0 0
145 1 2 34.165876 -4.991057 12.670737 0 0 0
146 1 2 25.974553 -24.859418 2.899133 0 0 0
147 1 2 -29.578972 1.263585 -26.010455 0 0 0
148 1 2 18.811803 42.681434 20.378625 0 0 0
149 1 2 38.551320 -7.652179 24.367978 0 0 0
150 1 2 -26.847039 -21.987069 27.033022 0 0 0
151 1 2 -5.887366 15.882291 -37.627312 0 0 0
152 1 2 -29.360679 -1.103507 -27.133300 0 0 0
153 1 2 36.510968 -1.616172 -23.453851 0 0 0
154 1 2 4.070241 -31.365235 -33.354518 0 0 0
155 1 2 -41.811143 -2.635718 -15.255664 0 0 0
156 1 2 36.921118 -28.068715 -30.551392 0 0 0
157 1 2 -28.773985 -36.720831 34.660092 0 0 0
158 1 2 9.710736 -18.072356 -15.371289 0 0 0
159 1 2 -15.390351 -4.661857 30.916944 0 0 0
160 1 2 8.341172 -38.397435 -28.596290 0 0 0
161 1 2 24.885488 -3.331977 -1.527186 0 0 0
162 1 2 21.051038 7.777740 -28.086793 0 0 0
163 1 2 -38.662240 32.140622 -31.779781 0 0 0
164 1 2 -30.518203 -15.108258 32.182378 0 0 0
165 1 2 -38.217675 -25.095589 -10.538710 0 0 0
166 1 2 -36.800894 -13.083787 -23.271073 0 0 0
167 1 2 -39.883967 7.595231 -13.987227 0 0 0
168 1 2 -28.680536 36.543271 -35.526101 0 0 0
169 1 2 -35.539273 15.294778 22.159078 0 0 0
170 1 2 -6.903933 -4.807155 35.816533 0 0 0
171 1 2 -9.610358 38.905161 -23.532649 0 0 0
172 1 2 17.672967 15.153585 9.767953 0 0 0
173 1 2 31.519353 -42.718628 36.766248 0 0 0
174 1 2 -31.326261 16.158751 -15.612954 0 0 0
175 1 2 -1.514716 -33.429902 -20.628020 0 0 0
176 1 2 -9.915896 -20.512627 -35.933771 0 0 0
177 1 2 -22.306439 1.164788 6.175447 0 0 0
178 1 2 -33.422768 -5.293780 19.882764 0 0 0
179 1 2 34.651982 26.043721 2.208146 0 0 0
180 1 2 -22.663035 16.880006 30.938567 0 0 0
181 1 2 -29.645737 3.739751 -28.957214 0 0 0
182 1 2 34.190526 -16.315183 12.542031 0 0 0
183 1 2 -30.957894 23.442006 7.893029 0 0 0
184 1 2 -28.090401 -37.601811 -5.902152 0 0 0
185 1 2 17.007116 -11.641587 34.186681 0 0 0
186 1 2 -11.168368 -25.671288 24.703214 0 0 0
187 1 2 31.253896 20.587758 -33.873902 0 0 0
188 1 2 -14.014466 26.445707 -39.989786 0 0 0
189 1 2 -27.373910 -39.094666 -29.999924 0 0 0
190 1 2 16.172055 17.894618 12.853498 0 0 0
191 1 2 38.258728 -15.502150 -36.024628 0 0 0
192 1 2 -17.280469 23.344840 35.216931 0 0 0
193 1 2 26.634732 17.429544 3.464055 0 0 0
194 1 2 9.090842 0.173950 -14.503232 0 0 0
195 1 2 -39.542571 -16.801917 4.807058 0 0 0
196 1 2 -18.716077 39.539830 -6.704089 0 0 0
197 1 2 28.985501 -20.264811 23.486356 0 0 0
198 1 2 14.226216 35.321599 6.594728 0 0 0
199 1 2 -25.815654 6.246495 -24.951829 0 0 0
200 1 2 -23.833970 4.679189 1.280702 0 0 0
201 1 2 -27.061249 33.839437 -27.211335 0 0 0
202 1 2 28.336632 5.530944 15.125161 0 0 0
203 1 2 -8.667003 24.082891 -6.510417 0 0 0
204 1 2 5.114261 -10.728160 17.727777 0 0 0
205 1 2 -23.656890 -20.535161 19.442319 0 0 0
206 1 2 -31.334305 -17.308026 -24.718022 0 0 0
207 1 2 -13.389203 15.931855 -8.564132 0 0 0
208 1 2 -2.020469 32.628339 16.925347 0 0 0
209 1 2 33.571233 -22.937117 3.868837 0 0 0
210 1 2 -8.276374 -14.696679 -6.955405 0 0 0
211 1 2 -17.340407 -26.903633 24.190467 0 0 0
212 1 2 38.230313 4.356641 37.082082 0 0 0
213 1 2 30.063367 19.375859 36.815480 0 0 0
214 1 2 -24.699876 25.036672 -25.399758 0 0 0
215 1 2 -9.007945 30.056394 -13.685889 0 0 0
216 1 2 17.798303 -37.061631 -17.995021 0 0 0
217 1 2 -26.421254 28.574124 40.449910 0 0 0
218 1 2 7.879304 39.185308 17.644807 0 0 0
219 1 2 9.973069 8.189580 6.916009 0 0 0
220 1 2 35.384900 -38.104496 -19.974145 0 0 0
221 1 2 -1.660884 2.519830 25.304265 0 0 0
222 1 2 -8.492808 26.619054 -39.556350 0 0 0
223 1 2 -5.406081 36.042503 9.675203 0 0 0
224 1 2 12.999681 0.392835 -22.739169 0 0 0
225 1 2 -18.654534 -21.420270 -14.927739 0 0 0
226 1 2 -22.199257 24.556418 -30.729404 0 0 0
227 1 2 -32.306222 -7.410815 -4.369521 0 0 0
228 1 2 10.938844 25.265447 12.050614 0 0 0
229 1 2 37.539276 -33.394889 34.912601 0 0 0
230 1 2 18.006066 4.990617 -11.064893 0 0 0
231 1 2 -39.683167 -16.256833 -39.877206 0 0 0
232 1 2 30.574262 0.819211 -16.203807 0 0 0
233 1 2 20.589978 -16.680262 -41.237484 0 0 0
234 1 2 37.971143 -12.466172 22.427175 0 0 0
235 1 2 18.211785 -16.470195 35.983510 0 0 0
236 1 2 35.252424 -10.683349 29.701037 0 0 0
237 1 2 -0.829417 12.032273 -8.636126 0 0 0
238 1 2 -28.223387 42.554975 38.397824 0 0 0
239 1 2 -27.857918 -4.257508 19.039651 0 0 0
240 1 2 18.197362 -3.334582 18.557645 0 0 0
241 1 2 8.570878 21.400998 -16.910058 0 0 0
242 1 2 -0.847903 8.942262 9.590972 0 0 0
243 1 2 -38.324647 21.893277 9.565335 0 0 0
244 1 2 37.303266 -34.506669 -5.867202 0 0 0
245 1 2 28.935994 -33.317597 19.528840 0 0 0
246 1 2 42.597971 0.076234 34.924592 0 0 0
247 1 2 40.958562 -41.039764 -35.356980 0 0 0
248 1 2 -19.322879 -8.803408 1.227986 0 0 0
249 1 2 -14.467707 2.028989 19.541711 0 0 0
250 1 2 -38.379065 -19.105134 -0.007615 0 0 0
251 1 2 -17.621444 20.632650 15.242734 0 0 0
252 1 2 30.415097 -21.837487 -0.547145 0 0 0
253 1 2 -12.962447 -31.493824 1.821660 0 0 0
254 1 2 -28.991410 2.607579 24.997235 0 0 0
255 1 2 22.937064 -4.892428 -37.304627 0 0 0
256 1 2 -5.530314 -29.045503 40.232526 0 0 0
257 1 2 -21.869500 11.186864 4.989366 0 0 0
258 1 2 -18.482802 -30.749705 40.173001 0 0 0
259 1 2 -14.219367 42.321918 22.228356 0 0 0
260 1 2 -1.764212 -16.743049 -18.547478 0 0 0
261 1 2 -1.303611 10.830304 -24.876569 0 0 0
262 1 2 -35.650887 -16.863490 3.144052 0 0 0
263 1 2 -8.290305 0.549634 31.177435 0 0 0
264 1 2 19.561174 11.633500 13.981700 0 0 0
265 1 2 -1.313845 3.199418 -14.630769 0 0 0
266 1 2 41.413276 -34.368813 -28.470595 0 0 0
267 1 2 16.297391 22.209432 -1.786715 0 0 0
268 1 2 2.832791 37.114804 23.870366 0 0 0
269 1 2 -13.362384 20.093206 32.222921 0 0 0
270 1 2 -34.875390 -18.694146 28.079076 0 0 0
271 1 2 -17.063926 6.382608 -42.279204 0 0 0
272 1 2 -27.690655 1.397935 40.706035 0 0 0
273 1 2 34.231580 23.207616 32.369283 0 0 0
274 1 2 0.837018 39.109044 -8.725177 0 0 0
275 1 2 -8.108897 -25.585681 -16.205727 0 0 0
276 1 2 28.702649 -20.214431 25.716771 0 0 0
277 1 2 41.762944 37.303273 -1.974456 0 0 0
278 1 2 3.196225 15.556501 -5.519252 0 0 0
279 1 2 32.463414 27.386769 -16.426713 0 0 0
280 1 2 20.830953 -30.631775 -11.022469 0 0 0
281 1 2 -21.284367 31.999410 32.463896 0 0 0
282 1 2 -17.564259 40.367016 -42.442675 0 0 0
283 1 2 11.927629 -1.324992 25.832265 0 0 0
284 1 2 40.131398 -40.768407 30.718877 0 0 0
285 1 2 -32.972077 25.563825 28.916074 0 0 0
286 1 2 -12.101460 4.279657 7.281633 0 0 0
287 1 2 37.918546 1.589917 0.217559 0 0 0
288 1 2 -17.006308 -31.531743 16.018308 0 0 0
289 1 2 -19.836091 -31.390571 -10.829404 0 0 0
290 1 2 19.006448 23.217054 4.056543 0 0 0
291 1 2 13.571473 34.462735 -11.314315 0 0 0
292 1 2 13.908521 -15.334599 17.922044 0 0 0
293 1 2 -35.187528 -10.977597 20.517694 0 0 0
294 1 2 -23.085626 -13.092160 4.441693 0 0 0
295 1 2 5.997911 -42.706452 19.811032 0 0 0
296 1 2 12.276746 -13.665170 -36.508492 0 0 0
297 1 2 7.378339 -18.465867 16.574594 0 0 0
298 1 2 28.468076 -36.884472 19.605714 0 0 0
299 1 2 -24.427651 -8.449469 32.707203 0 0 0
300 1 2 -33.078165 31.611180 33.398537 0 0 0
301 1 2 -33.663537 38.474657 -39.914208 0 0 0
302 1 2 38.698224 1.018514 25.145953 0 0 0
303 1 2 -17.696469 28.250219 -33.307723 0 0 0
304 1 2 -26.136178 -34.567569 39.593882 0 0 0
305 1 2 -1.699973 -5.605979 -19.545304 0 0 0
306 1 2 14.437741 37.919718 -27.664921 0 0 0
307 1 2 -42.210023 6.546487 -17.338164 0 0 0
308 1 2 -16.513499 13.552095 2.900560 0 0 0
309 1 2 16.348111 35.656858 17.397203 0 0 0
310 1 2 26.161336 27.986272 3.902043 0 0 0
311 1 2 -36.972054 29.653646 12.877801 0 0 0
312 1 2 -37.053630 -20.900742 -5.936625 0 0 0
313 1 2 -37.282975 39.751426 21.106378 0 0 0
314 1 2 6.903768 3.362226 -35.197671 0 0 0
315 1 2 -9.277572 39.585660 30.989759 0 0 0
316 1 2 -3.463984 0.027597 -36.055460 0 0 0
317 1 2 -16.305327 -0.984782 20.591352 0 0 0
318 1 2 32.732654 -0.323546 26.355756 0 0 0
319 1 2 30.029157 -40.878998 -1.616729 0 0 0
320 1 2 -24.405919 6.315957 -1.595347 0 0 0
321 1 2 10.215963 -24.555226 29.115565 0 0 0
322 1 2 -27.044434 -13.598676 30.508916 0 0 0
323 1 2 -29.261051 19.434121 -39.971727 0 0 0
324 1 2 -18.619689 33.084645 11.736501 0 0 0
325 1 2 35.815549 -18.160735 40.157160 0 0 0
326 1 2 13.766221 18.917730 31.361208 0 0 0
327 1 2 36.570707 -2.286143 -38.087273 0 0 0
328 1 2 -23.788794 -1.809768 7.299031 0 0 0
329 1 2 41.363073 38.736280 -20.451356 0 0 0
330 1 2 -34.717268 3.483304 30.197388 0 0 0
331 1 2 -34.995410 -36.424332 27.633901 0 0 0
332 1 2 6.081025 -19.057296 28.283788 0 0 0
333 1 2 8.624093 34.996007 28.138799 0 0 0
334 1 2 -39.266342 -10.089755 19.518415 0 0 0
335 1 2 19.543718 17.046514 -13.466481 0 0 0
336 1 2 38.244946 -28.620852 31.078305 0 0 0
337 1 2 -32.991843 -21.926558 5.130599 0 0 0
338 1 2 -29.535860 -34.697571 -24.506379 0 0 0
339 1 2 -26.912871 -36.183638 19.223245 0 0 0
340 1 2 33.203244 26.124440 -0.671470 0 0 0
341 1 2 -2.760344 -27.006881 28.890973 0 0 0
342 1 2 -5.682335 -25.128136 24.603413 0 0 0
343 1 2 20.164392 -18.023396 -12.745967 0 0 0
344 1 2 -0.081218 -29.496361 -7.313750 0 0 0
345 1 2 -6.356166 29.330693 -39.648758 0 0 0
346 1 2 -38.883217 9.565539 -4.723883 0 0 0
347 1 2 25.644406 -23.163901 24.421064 0 0 0
348 1 2 -27.581872 -11.431092 18.937978 0 0 0
349 1 2 -26.097169 13.024781 36.002286 0 0 0
350 1 2 25.375936 -11.524739 0.180135 0 0 0
351 1 2 13.406087 -28.918860 -19.115374 0 0 0
352 1 2 -10.537867 -20.321687 -32.555182 0 0 0
353 1 2 -28.023290 41.683034 -2.154082 0 0 0
354 1 2 9.791501 -13.770743 7.705758 0 0 0
355 1 2 -33.789101 -7.438483 -17.901788 0 0 0
356 1 2 0.108522 39.659314 34.323654 0 0 0
357 1 2 13.325273 -3.310336 -39.852944 0 0 0
358 1 2 34.240956 32.968145 -40.082329 0 0 0
359 1 2 35.098584 2.397039 15.257959 0 0 0
360 1 2 19.515958 -12.121861 23.380315 0 0 0
361 1 2 39.700599 14.421895 22.214389 0 0 0
362 1 2 40.546549 -9.886214 34.995494 0 0 0
363 1 2 8.087518 -7.575221 2.996343 0 0 0
364 1 2 -12.447104 32.793149 39.466770 0 0 0
365 1 2 38.381734 9.469545 4.703843 0 0 0
366 1 2 22.894605 15.606706 16.077554 0 0 0
367 1 2 36.187238 -6.228160 -30.955082 0 0 0
368 1 2 26.522130 -35.349007 4.273473 0 0 0
369 1 2 14.438920 -1.546126 -6.042743 0 0 0
370 1 2 24.810857 -34.712937 -15.991608 0 0 0
371 1 2 12.566930 22.074933 -5.513251 0 0 0
372 1 2 -16.400857 -39.082429 38.012738 0 0 0
373 1 2 -25.332610 -22.775683 -10.295737 0 0 0
374 1 2 -23.325203 -0.268500 36.369232 0 0 0
375 1 2 33.610262 27.968389 -10.571746 0 0 0
376 1 2 -5.444655 38.908384 39.819074 0 0 0
377 1 2 29.684827 -29.077968 6.029431 0 0 0
378 1 2 -19.433982 20.532708 -6.652545 0 0 0
379 1 2 16.234052 -23.529183 38.326322 0 0 0
380 1 2 7.975606 19.537038 20.083467 0 0 0
381 1 2 7.003026 -22.037959 14.385972 0 0 0
382 1 2 -25.487435 17.476880 -39.656587 0 0 0
383 1 2 24.732915 -32.516812 21.322156 0 0 0
384 1 2 -41.882485 2.699487 -16.215400 0 0 0
385 1 2 2.701821 -31.957078 -6.629393 0 0 0
386 1 2 -27.580611 34.836423 -41.269307 0 0 0
387 1 2 -35.846614 15.840032 16.084550 0 0 0
388 1 2 32.457578 30.880010 -35.117398 0 0 0
389 1 2 36.801747 -32.315133 4.465333 0 0 0
390 1 2 0.582868 -30.570278 -18.454202 0 0 0
391 1 2 -0.696734 -38.001349 -17.738963 0 0 0
392 1 2 2.889470 -26.407513 2.500051 0 0 0
393 1 2 2.000913 -13.986035 -13.590216 0 0 0
394 1 2 -8.477847 -18.323499 39.648374 0 0 0
395 1 2 13.954221 13.042807 8.657613 0 0 0
396 1 2 24.711537 -35.332469 42.179608 0 0 0
397 1 2 -19.155423 -9.788543 -0.680495 0 0 0
398 1 2 -25.546075 16.171048 7.988309 0 0 0
399 1 2 41.930219 -41.461510 32.935442 0 0 0
400 1 2 41.527716 14.344194 -33.236489 0 0 0
401 1 2 40.557510 -29.475022 -27.206181 0 0 0
402 1 2 11.488752 -39.588883 -7.629374 0 0 0
403 1 2 -35.946768 -1.075587 39.320852 0 0 0
404 1 2 6.567533 -37.993118 -20.135888 0 0 0
405 1 2 -2.277804 27.642408 -4.705775 0 0 0
406 1 2 -39.662562 29.361050 -33.487985 0 0 0
407 1 2 -4.364966 33.683309 33.335744 0 0 0
408 1 2 5.391652 19.621930 1.689874 0 0 0
409 1 2 32.774717 41.239194 -11.435008 0 0 0
410 1 2 -5.869506 -23.989425 8.026582 0 0 0
411 1 2 36.816193 31.390042 41.790677 0 0 0
412 1 2 23.612571 37.007070 24.613419 0 0 0
413 1 2 -5.066687 9.864545 -17.474357 0 0 0
414 1 2 -22.004847 -38.594788 15.810098 0 0 0
415 1 2 -26.381123 4.761220 -1.332332 0 0 0
416 1 2 -22.239871 -34.111407 -7.457251 0 0 0
417 1 2 13.852414 -33.209699 3.889665 0 0 0
418 1 2 -36.113892 -2.793216 -6.648066 0 0 0
419 1 2 24.624913 -28.929467 -25.724074 0 0 0
420 1 2 40.375058 32.510007 -8.017974 0 0 0
421 1 2 -30.632608 14.946639 17.928643 0 0 0
422 1 2 41.419683 -5.742556 -22.179307 0 0 0
423 1 2 -9.429343 -21.512868 -19.508969 0 0 0
424 1 2 40.367704 22.114011 -2.475489 0 0 0
425 1 2 -18.234952 9.920007 -35.431588 0 0 0
426 1 2 6.913808 -42.623101 34.511846 0 0 0
427 1 2 12.903131 -20.471161 6.468095 0 0 0
428 1 2 14.020482 -38.491982 -8.719851 0 0 0
429 1 2 -36.964628 -34.388283 -40.474122 0 0 0
430 1 2 -26.504172 -32.486161 -39.920459 0 0 0
431 1 2 -26.269353 5.864644 -3.811927 0 0 0
432 1 2 -8.330851 13.673974 -18.443559 0 0 0
433 1 2 19.198831 18.596948 -32.522643 0 0 0
434 1 2 -4.152285 -22.274724 -37.165500 0 0 0
435 1 2 5.222112 -27.203863 37.632965 0 0 0
436 1 2 21.686628 -18.783341 37.187452 0 0 0
437 1 2 10.023294 -4.481933 3.205991 0 0 0
438 1 2 -38.877343 -34.124078 7.669633 0 0 0
439 1 2 40.230758 -21.283316 -7.190341 0 0 0
440 1 2 -34.557236 14.599050 15.614091 0 0 0
441 1 2 15.232339 -29.635269 -24.287999 0 0 0
442 1 2 20.703904 -35.470223 19.127504 0 0 0
443 1 2 -28.064850 -18.958913 22.617511 0 0 0
444 1 2 37.981450 25.465215 12.248883 0 0 0
445 1 2 -22.894412 -4.960101 -0.089057 0 0 0
446 1 2 30.693395 -12.837376 -17.299252 0 0 0
447 1 2 -1.843232 -15.906495 21.300634 0 0 0
448 1 2 -20.903834 7.739930 -35.046784 0 0 0
449 1 2 -25.168626 -31.678505 -15.359406 0 0 0
450 1 2 -18.007537 23.052602 18.835400 0 0 0
451 1 2 -11.897288 -5.368342 26.004323 0 0 0
452 1 2 -19.348271 9.865716 34.798331 0 0 0
453 1 2 -5.588298 -25.191760 -14.531566 0 0 0
454 1 2 20.571153 -14.507195 9.894271 0 0 0
455 1 2 25.572076 -29.150217 -11.652539 0 0 0
456 1 2 -39.696007 39.583370 27.880239 0 0 0
457 1 2 -25.869258 42.488965 1.585549 0 0 0
458 1 2 -4.186988 41.831380 36.662504 0 0 0
459 1 2 11.523488 -29.031316 1.539941 0 0 0
460 1 2 -37.249023 -42.194756 35.737767 0 0 0
461 1 2 30.961721 12.608556 -17.742249 0 0 0
462 1 2 34.251371 -29.877064 -2.905776 0 0 0
463 1 2 -4.396285 15.119094 27.569204 0 0 0
464 1 2 -27.077132 -40.480208 -13.261199 0 0 0
465 1 2 -25.482392 13.289319 22.087331 0 0 0
466 1 2 -6.358798 -35.816880 -14.941056 0 0 0
467 1 2 -4.677817 -21.087529 -1.934153 0 0 0
468 1 2 -26.334847 -29.861196 22.155381 0 0 0
469 1 2 7.700011 -10.955476 -35.152199 0 0 0
470 1 2 -32.617203 -34.893321 19.557470 0 0 0
471 1 2 -27.737903 13.459626 -34.313527 0 0 0
472 1 2 -36.627118 17.968728 6.511445 0 0 0
473 1 2 -23.733949 -38.344336 -42.099686 0 0 0
474 1 2 8.254815 3.879846 32.534314 0 0 0
475 1 2 -17.344573 32.918233 32.617147 0 0 0
476 1 2 -34.438294 -35.182854 -12.951953 0 0 0
477 1 2 -36.541249 27.056699 4.421037 0 0 0
478 1 2 27.753888 -23.964234 15.184629 0 0 0
479 1 2 41.765250 39.550589 19.824338 0 0 0
480 1 2 20.029180 27.948013 2.380334 0 0 0
481 1 2 -0.495517 7.559495 -19.240111 0 0 0
482 1 2 -2.318133 -41.553400 11.070523 0 0 0
483 1 2 -0.624579 -29.763412 30.677968 0 0 0
484 1 2 35.730138 42.399106 -12.208800 0 0 0
485 1 2 27.322694 30.049199 -23.825165 0 0 0
486 1 2 -21.536549 36.936605 19.235002 0 0 0
487 1 2 37.949689 2.455270 3.526334 0 0 0
488 1 2 -22.723582 31.387479 17.830365 0 0 0
489 1 2 12.451753 -6.579245 -19.615920 0 0 0
490 1 2 -1.442557 -29.191633 -25.496344 0 0 0
491 1 2 10.690740 -30.693631 -23.009520 0 0 0
492 1 2 -12.960727 -2.234786 35.409368 0 0 0
493 1 2 -9.487502 31.899793 4.282373 0 0 0
494 1 2 35.796427 21.505094 -29.444679 0 0 0
495 1 2 -11.513863 3.941838 -32.217034 0 0 0
496 1 2 -33.176056 -15.955460 6.455514 0 0 0
497 1 2 4.231012 -16.757697 -17.222945 0 0 0
498 1 1 -16.123755 41.779864 5.486619 0 0 0
499 1 1 -14.997800 33.298703 39.205929 0 0 0
500 1 1 -21.513560 26.597230 -31.940371 0 0 0
501 1 1 9.581664 -4.581424 38.175634 0 0 0
502 1 1 -37.755657 -3.694075 40.952527 0 0 0
503 1 1 -2.587668 -11.011540 -9.584884 0 0 0
504 1 1 4.354978 -19.690705 40.272207 0 0 0
505 1 1 -17.780022 -10.244620 6.682462 0 0 0
506 1 1 18.460672 -34.397233 -13.349143 0 0 0
507 1 1 37.786672 -21.833249 0.433291 0 0 0
508 1 1 37.165998 29.544339 -29.627114 0 0 0
509 1 1 32.181347 -2.947074 22.678174 0 0 0
510 1 1 -36.189889 27.431798 -12.087098 0 0 0
511 1 1 16.679662 7.509607 5.261445 0 0 0
512 1 1 -30.563141 35.186765 35.478074 0 0 0
513 1 1 -25.868922 33.519605 22.192536 0 0 0
514 1 1 -36.738646 -15.169179 -29.290507 0 0 0
515 1 1 -2.578223 -42.465805 42.668055 0 0 0
516 1 1 26.129010 22.034413 34.124664 0 0 0
517 1 1 19.289670 -33.141528 23.977208 0 0 0
518 1 1 39.041371 4.092163 -3.013472 0 0 0
519 1 1 -31.423881 -27.226311 29.427060 0 0 0
520 1 1 4.575990 -11.206595 22.096845 0 0 0
521 1 1 40.013888 27.206355 36.353437 0 0 0
522 1 1 -15.306445 -11.999032 -17.267411 0 0 0
523 1 1 -34.013796 -35.170624 -18.428897 0 0 0
524 1 1 -17.919803 23.300248 36.201665 0 0 0
525 1 1 26.184583 -20.896386 5.064454 0 0 0
526 1 1 5.178527 32.511701 -1.101916 0 0 0
527 1 1 -6.110972 16.936952 -12.672416 0 0 0
528 1 1 3.454782 20.714761 -23.832288 0 0 0
529 1 1 16.583715 41.007444 26.445554 0 0 0
530 1 1 28.905934 -39.550026 -17.577220 0 0 0
531 1 1 -11.748360 -42.172928 -1.824576 0 0 0
532 1 1 16.649102 10.937974 -0.640818 0 0 0
533 1 1 -39.803605 -8.468478 39.988408 0 0 0
534 1 1 13.207372 14.320233 7.049050 0 0 0
535 1 1 34.157058 8.227057 34.675679 0 0 0
536 1 1 20.414682 -11.309552 1.355825 0 0 0
537 1 1 37.122823 -26.430871 35.833562 0 0 0
538 1 1 -24.473410 -9.275832 -23.215325 0 0 0
539 1 1 -33.063164 4.513360 -3.818805 0 0 0
540 1 1 22.086301 21.231488 -30.649629 0 0 0
541 1 1 19.486516 5.213027 30.395379 0 0 0
542 1 1 6.613572 38.947499 -29.128660 0 0 0
543 1 1 -4.843379 -9.331641 8.860395 0 0 0
544 1 1 -19.808631 -36.468583 38.025670 0 0 0
545 1 1 37.949346 12.070718 22.874608 0 0 0
546 1 1 -27.724341 -40.133057 -14.407273 0 0 0
547 1 1 -18.218406 24.305654 -38.104908 0 0 0
548 1 1 -42.287209 11.128362 0.814702 0 0 0
549 1 1 28.977554 10.190512 4.941268 0 0 0
550 1 1 35.625325 -21.509461 36.273080 0 0 0
551 1 1 15.356389 11.483560 29.247319 0 0 0
552 1 1 22.149564 -4.041877 7.930135 0 0 0
553 1 1 32.093167 0.520604 -6.081231 0 0 0
554 1 1 25.458951 37.893056 -25.024979 0 0 0
555 1 1 37.114824 3.782125 9.957463 0 0 0
556 1 1 -7.814399 37.729665 -4.045794 0 0 0
557 1 1 35.798997 3.127748 2.323434 0 0 0
558 1 1 -16.123566 -24.966990 39.277151 0 0 0
559 1 1 36.584348 -23.241448 16.331792 0 0 0
560 1 1 20.927087 13.098169 29.728452 0 0 0
561 1 1 5.924573 25.115712 -28.179524 0 0 0
562 1 1 22.817683 -5.699685 35.792576 0 0 0
563 1 1 -18.457803 -5.404470 -28.331569 0 0 0
564 1 1 -26.987230 32.848043 -32.012289 0 0 0
565 1 1 -35.249734 -25.336548 4.217580 0 0 0
566 1 1 24.132268 35.962322 4.531385 0 0 0
567 1 1 19.700717 -38.602015 11.745767 0 0 0
568 1 1 17.881127 7.152780 42.148763 0 0 0
569 1 1 -16.365153 -36.916855 9.542188 0 0 0
570 1 1 -41.219491 30.051900 -42.297455 0 0 0
571 1 1 -34.907654 33.133458 -24.784180 0 0 0
572 1 1 6.694000 13.808152 31.955374 0 0 0
573 1 1 11.886029 -26.939721 14.243264 0 0 0
574 1 1 0.111158 17.657621 10.060868 0 0 0
575 1 1 16.707900 28.463964 37.692144 0 0 0
576 1 1 -18.743187 20.074773 10.630246 0 0 0
577 1 1 30.990552 18.710099 -32.665842 0 0 0
578 1 1 14.381253 -13.952340 20.393067 0 0 0
579 1 1 23.936254 1.580945 -25.391929 0 0 0
580 1 1 34.452172 19.438043 40.630135 0 0 0
581 1 1 -36.589913 -1.976685 6.254182 0 0 0
582 1 1 -10.931037 -26.643988 -33.178914 0 0 0
583 1 1 -28.270463 -11.718589 -37.366087 0 0 0
584 1 1 -31.781196 28.857934 12.917634 0 0 0
585 1 1 9.323682 19.449498 -33.615120 0 0 0
586 1 1 19.444188 -16.533696 -27.974328 0 0 0
587 1 1 20.603616 38.599851 9.312192 0 0 0
588 1 1 -11.117764 30.593602 23.332418 0 0 0
589 1 1 -32.225762 -39.440601 41.011686 0 0 0
590 1 1 -13.454316 -17.109700 -33.227015 0 0 0
591 1 1 27.746518 11.345250 -40.516854 0 0 0
592 1 1 -40.682752 -12.107938 39.719632 0 0 0
593 1 1 7.620198 18.946809 -3.292724 0 0 0
594 1 1 -5.612697 -33.065575 -36.306805 0 0 0
595 1 1 4.376683 22.736066 6.620584 0 0 0
596 1 1 39.235883 10.318597 2.969339 0 0 0
597 1 1 -38.243706 -22.869666 6.792113 0 0 0
598 1 1 -31.705254 -19.811150 -36.035157 0 0 0
599 1 1 -28.030845 41.508809 40.116582 0 0 0
600 1 1 -2.488990 -38.388203 -21.056929 0 0 0
601 1 1 17.454183 -30.434334 12.796346 0 0 0
602 1 1 -10.796731 1.638433 -41.234429 0 0 0
603 1 1 -0.601512 -9.884055 -8.147746 0 0 0
604 1 1 -38.138910 -16.035436 -2.073645 0 0 0
605 1 1 -1.528510 -12.822020 42.291562 0 0 0
606 1 1 -13.458413 10.379132 -22.622580 0 0 0
607 1 1 -23.447736 -18.450103 -7.046082 0 0 0
608 1 1 16.438226 3.012944 -32.378810 0 0 0
609 1 1 18.033981 37.460648 -14.657514 0 0 0
610 1 1 37.664273 21.519635 -41.615838 0 0 0
611 1 1 37.318998 -21.278319 -18.156922 0 0 0
612 1 1 -9.447101 -41.582282 41.643384 0 0 0
613 1 1 -28.210851 17.555535 -22.806346 0 0 0
614 1 1 -9.712539 41.131597 -28.716388 0 0 0
615 1 1 -6.892489 26.253324 -20.759717 0 0 0
616 1 1 8.543931 4.977371 17.510629 0 0 0
617 1 1 4.949392 36.895284 -29.860790 0 0 0
618 1 1 -36.732621 21.150304 41.783750 0 0 0
619 1 1 26.694981 30.253995 -13.314936 0 0 0
620 1 1 36.882604 39.978429 21.585233 0 0 0
621 1 1 5.448232 7.379174 -25.298623 0 0 0
622 1 1 0.454488 42.085408 27.944928 0 0 0
623 1 1 16.837999 -1.317031 37.432645 0 0 0
624 1 1 -31.987517 -17.627122 -6.741576 0 0 0
625 1 1 -38.013191 -0.761123 34.610582 0 0 0
626 1 1 39.059659 -8.058955 10.159658 0 0 0
627 1 1 -2.317538 -2.391456 32.067342 0 0 0
628 1 1 -25.160426 22.801131 -14.090592 0 0 0
629 1 1 41.040998 31.403104 22.262741 0 0 0
630 1 1 -25.880272 38.239639 0.765481 0 0 0
631 1 1 -41.346771 16.557889 26.422299 0 0 0
632 1 1 -1.255877 6.545495 14.876157 0 0 0
633 1 1 40.205785 20.916448 -2.449340 0 0 0
634 1 1 28.611661 -17.300727 -18.890361 0 0 0
635 1 1 -37.911027 42.257726 25.291339 0 0 0
636 1 1 1.304589 11.112893 5.630620 0 0 0
637 1 1 17.270051 2.300719 -6.463357 0 0 0
638 1 1 15.016812 -11.295678 -41.974862 0 0 0
639 1 1 -16.355210 -26.495391 -42.020829 0 0 0
640 1 1 -26.985845 -19.128604 -26.736741 0 0 0
641 1 1 -18.321229 24.786229 -23.781464 0 0 0
642 1 1 -30.988251 -21.072375 -22.091868 0 0 0
643 1 1 -35.776581 19.558518 10.691312 0 0 0
644 1 1 -39.381928 38.570191 -5.123334 0 0 0
645 1 1 37.292615 25.720441 -39.742158 0 0 0
646 1 1 -9.611861 -42.418819 18.820680 0 0 0
647 1 1 -24.081124 -40.791173 24.448674 0 0 0
648 1 1 -15.548508 6.847804 28.444364 0 0 0
649 1 1 -35.348770 42.073471 18.855584 0 0 0
650 1 1 -10.219031 1.233720 40.249623 0 0 0
651 1 1 -41.778527 34.996008 18.914256 0 0 0
652 1 1 27.712155 -38.293557 -29.719498 0 0 0
653 1 1 4.567063 24.558087 30.207501 0 0 0
654 1 1 -20.720303 -18.326531 32.263961 0 0 0
655 1 1 -26.723311 5.282498 -4.731150 0 0 0
656 1 1 37.843871 18.303212 18.422145 0 0 0
657 1 1 -23.133921 19.736917 -31.335317 0 0 0
658 1 1 26.874776 21.980664 35.391072 0 0 0
659 1 1 37.353642 -7.470183 -30.862732 0 0 0
660 1 1 5.048004 16.144531 32.172048 0 0 0
661 1 1 33.619886 35.884902 -12.588435 0 0 0
662 1 1 -13.559974 -7.917733 -18.746529 0 0 0
663 1 1 -20.286080 18.901773 -39.273127 0 0 0
664 1 1 -9.337520 41.501722 32.624005 0 0 0
665 1 1 -24.641816 -29.485673 -40.424447 0 0 0
666 1 1 41.190900 -14.925952 -17.940600 0 0 0
667 1 1 -9.616031 11.711114 14.441575 0 0 0
668 1 1 2.970208 -26.014665 26.098321 0 0 0